# vtk DataFile Version 2.0
Generated by NetDEM
ASCII 
DATASET POLYDATA
POINTS 6 float
-0.00028296 0 0 
0.000294506 0 0 
0 -0.000302933 0 
0 0.000294726 0 
0 0 0 
1.52951e-309 1.52951e-309 -0.0910177 
VERTICES 6 12
1 0
1 1
1 2
1 3
1 4
1 5
POINT_DATA 6
SCALARS id int 1
LOOKUP_TABLE default
0
1
2
3
4
5
SCALARS type int 1
LOOKUP_TABLE default
0
0
0
0
0
0
SCALARS quat float 4
LOOKUP_TABLE default
1 0 0 0 
1 0 0 0 
1 0 0 0 
1 0 0 0 
1 0 0 0 
1 0 7.64754e-310 2.29462e-314 
VECTORS vel float
0 0 0 
0 0 0 
0 0 0 
0 0 0 
0 0 0 
0 0 0 
VECTORS spin float
0 0 0 
0 0 0 
0 0 0 
0 0 0 
0 0 0 
0 0 0 
VECTORS force float
-280.197 -2.31023 -76.1116 
282.167 -4.50787 -75.8802 
-1.01196 -271.254 -73.8612 
-2.50029 274.67 -74.3221 
1.37519 1.12538 -541.025 
0.186313 2.16205 653.132 
VECTORS moment float
-0.0201433 -0.574293 -0.0395035 
0.039044 0.809793 -0.0129659 
0.526 0.0198654 -0.0642425 
-0.573893 -0.0254696 0.0734395 
0.18162 0.0692362 0.0485706 
-0.347976 -0.290339 -0.00484828 
SCALARS shape_id int 1
LOOKUP_TABLE default
1
2
3
4
5
6
